512
Atoms. From timestep 0
A 7.14452 5.37217 2.07878
A 3.82445 2.31638 1.37363
A 2.6619 3.42162 3.87543
A 3.73791 7.33147 6.31501
A 2.00016 5.30075 3.67845
A 1.08274 7.03661 3.15494
A 4.3371 7.09275 2.05129
A 0.0145007 2.42971 7.08643
A 3.97612 3.96104 2.10766
A 4.73472 0.574309 2.94029
A 0.147232 4.53277 3.84541
A 2.89348 2.10703 1.97024
A 1.29516 0.167055 2.20986
A 1.36739 3.20554 5.03262
A 6.58638 0.152488 6.66325
A 0.969071 2.72867 0.0818983
A 3.0414 2.56811 2.8748
A 4.23014 5.64698 1.16501
A 4.70671 3.45745 4.59022
A 2.38213 0.148046 2.31075
A 3.0786 4.18829 0.809919
A 2.50002 3.31163 1.02638
A 1.40027 1.68058 6.22289
A 3.89666 6.18381 6.69775
A 6.33279 7.14778 5.01829
A 5.78307 6.481 4.16237
A 2.91597 3.87361 7.21213
A 3.35323 1.22274 6.97008
A 5.40498 1.60631 1.23793
A 5.98359 2.5157 6.87757
A 4.84318 2.11504 3.75796
A 3.65325 1.66052 4.34021
A 2.44399 3.05919 2.05941
A 4.01643 7.2639 7.23527
A 0.53398 5.0253 4.64717
A 6.09607 5.05188 5.08771
A 0.440047 2.18868 2.66969
A 2.55451 6.68947 1.28894
A 6.42803 4.55245 2.39155
A 0.0829938 3.91667 6.11251
A 4.57162 4.74934 1.51336
A 3.11569 2.49409 4.23637
A 4.89299 5.56754 1.99323
A 2.73685 6.29347 2.27199
A 3.78507 5.1675 6.62533
A 3.12088 5.68808 7.20461
A 6.10265 6.87558 5.98036
A 1.35685 7.33406 6.27422
A 5.30508 5.41751 7.02169
A 3.85835 3.70069 0.238196
A 5.431 1.17563 5.48429
A 5.46841 2.1902 5.35414
A 2.56617 4.58045 4.31735
A 1.81754 5.64075 2.59396
A 0.341865 3.32339 5.10016
A 6.04304 0.759616 4.78296
A 2.8414 4.75234 6.5061
A 2.92078 2.19546 6.87042
A 6.9566 5.11583 0.184216
A 4.267 5.61998 0.138386
A 0.504955 1.75096 4.57788
A 3.61409 0.464012 2.56343
A 3.86647 1.19755 6.10382
A 3.61771 6.70073 2.68065
A 1.22896 2.76835 3.26707
A 1.62406 3.46421 3.92222
A 3.76212 6.78552 4.66642
A 1.72012 2.01377 5.27687
A 3.37873 4.24471 3.58313
A 2.1406 3.76029 4.78776
A 2.56084 6.01753 3.25675
A 2.47564 1.61206 0.248962
A 3.32914 7.26401 0.679257
A 4.63293 2.76045 5.34145
A 1.27871 1.4821 1.27775
A 3.51501 1.89266 0.353835
A 0.767864 2.33761 5.43222
A 1.36169 0.312296 4.04136
A 1.8135 0.814621 0.666726
A 4.64088 5.72983 6.15491
A 3.24326 5.9135 1.49514
A 7.22777 0.986823 6.19188
A 1.24921 7.20665 5.12012
A 5.04711 4.40307 4.73555
A 1.37192 4.82369 7.02396
A 4.78462 6.44181 1.4147
A 0.386443 4.82921 1.34928
A 4.74619 1.98588 1.89679
A 6.97632 0.56064 3.15022
A 4.37052 0.0145984 0.995436
A 2.91034 1.07364 2.11479
A 4.65832 0.0804257 3.89468
A 0.802343 3.93911 4.4707
A 2.94579 3.92447 1.86169
A 2.4692 1.59555 4.5358
A 1.04446 5.43729 5.39397
A 4.42874 1.08885 3.96937
A 5.38568 1.17367 2.50558
A 2.86819 3.82088 6.10871
A 5.37741 2.89365 2.36433
A 3.11705 3.59939 2.88723
A 0.783062 6.39719 6.64797
A 6.39919 2.86548 4.63118
A 2.34448 1.52776 1.26163
A 1.96235 1.15055 3.68179
A 1.01862 4.21638 5.65454
A 6.70089 6.07 0.34507
A 6.69109 0.584482 1.38616
A 1.43732 4.71504 4.6543
A 3.56708 0.584832 1.48615
A 5.08735 1.14792 6.62379
A 5.30529 5.55347 4.58382
A 2.79237 0.75929 3.25048
A 2.48194 4.75227 0.227571
A 5.24742 2.62622 4.4605
A 1.25832 5.82806 7.33712
A 3.17012 2.7471 5.92058
A 0.461797 3.4241 2.57682
A 7.21563 1.1735 2.1664
A 4.26753 4.43212 4.03555
A 6.20658 2.84876 0.533743
A 5.71187 0.533852 0.0605759
A 4.2024 4.97177 4.95467
A 4.69812 1.84659 5.98445
A 7.30574 2.78576 6.06165
A 1.28898 4.40206 1.04196
A 6.3882 1.5361 2.92779
A 4.51869 6.06719 5.03834
A 1.8483 2.29613 6.91277
A 5.95589 5.29003 0.432878
A 6.21112 6.05096 4.94115
A 2.1371 2.61824 4.60255
A 2.36182 3.03707 6.4632
A 1.23946 4.45178 3.65757
A 7.15149 1.26249 3.96955
A 4.388 3.14876 3.6046
A 3.38493 4.17166 4.68112
A 4.90714 3.75582 1.62162
A 1.45351 1.9555 4.17429
A 6.49037 1.86393 4.72007
A 1.45154 1.06881 4.7746
A 4.738 4.56802 6.1916
A 6.9267 6.54634 4.36293
A 2.76983 7.01388 3.15932
A 3.49168 4.79374 1.58994
A 2.27929 1.20266 5.65094
A 6.2067 7.17959 1.79036
A 3.70998 0.172072 3.60856
A 6.06135 3.67785 7.1843
A 0.188925 4.279 0.532806
A 2.97202 0.695236 6.17536
A 1.68387 5.3229 0.682616
A 2.08864 5.83691 1.59492
A 5.46712 3.65821 0.802104
A 5.70022 4.21365 5.70989
A 3.65797 5.62369 5.64775
A 1.85203 2.45759 1.52152
A 0.870424 1.02287 0.375528
A 4.44472 3.17351 0.923468
A 3.34971 5.55852 2.67274
A 4.67941 0.451329 5.92408
A 3.8509 2.27568 3.33112
A 2.45266 4.82603 2.72277
A 4.66496 4.65416 2.591
A 4.94288 3.55864 5.89175
A 5.64732 3.27522 5.179
A 5.82828 3.51499 4.14413
A 7.06431 0.951775 5.14902
A 6.62759 6.06108 1.52799
A 6.66174 1.936 0.339628
A 2.37661 4.79356 1.26736
A 4.46743 5.667 3.97759
A 3.79829 1.96493 5.43085
A 6.49362 5.79815 5.94884
A 1.47474 3.33431 1.00004
A 2.54228 4.51845 5.32146
A 2.1051 5.47751 4.83234
A 4.12371 2.54454 4.44342
A 0.788496 2.75476 4.28243
A 3.59639 4.56431 5.73075
A 6.11151 1.16866 0.672513
A 4.49115 1.57616 2.92532
A 5.25317 7.05933 0.399859
A 0.302104 3.37164 6.95323
A 0.424898 3.67873 1.40352
A 2.18615 0.23213 5.56295
A 5.00391 6.81392 6.0208
A 4.69148 1.77085 4.86401
A 6.40129 4.33392 0.676718
A 1.90664 4.05446 6.80102
A 2.38503 7.25384 0.350219
A 5.26176 2.66044 1.25592
A 1.00744 4.24475 2.0607
A 1.46772 3.23516 2.24019
A 6.29817 0.0862949 3.96797
A 7.19121 4.16913 4.87164
A 2.28856 7.14459 6.56777
A 7.31412 6.93466 3.35592
A 6.63552 3.07874 3.57339
A 5.03961 2.19909 6.91811
A 7.24471 6.89965 0.0625523
A 4.62189 0.713793 1.77288
A 2.85954 2.33719 0.970365
A 7.05932 5.02232 6.49225
A 0.248152 5.82117 5.86366
A 0.311131 0.259226 0.757625
A 0.886957 2.5172 1.08343
A 4.86988 6.39152 7.02027
A 1.2591 5.7657 4.17467
A 4.69622 2.23909 0.617774
A 0.413192 6.21889 4.71519
A 5.77503 6.33776 2.86098
A 6.80265 6.56631 2.46894
A 6.61055 3.47309 5.49156
A 5.33176 7.28241 2.4647
A 5.98177 4.03913 1.65433
A 2.44628 1.61665 2.88848
A 4.29123 1.33244 1.02422
A 0.881812 5.44898 3.34443
A 0.846169 0.869286 6.62597
A 0.456581 6.76791 2.33571
A 0.859772 1.13532 2.16043
A 5.5134 2.91062 3.38935
A 2.9602 6.49068 4.10514
A 4.62674 7.15869 5.15068
A 7.03287 3.87078 3.00884
A 0.785724 5.24866 2.39321
A 2.15868 5.47375 6.83995
A 1.83763 4.80829 6.08936
A 0.256334 7.3322 6.44415
A 2.83687 6.18097 6.31281
A 0.0444276 5.59134 3.86762
A 0.899443 6.90247 1.32137
A 2.27797 2.31808 3.63592
A 6.78267 2.12078 2.19427
A 1.32369 1.69638 3.01778
A 6.35458 4.99083 1.48307
A 7.15305 2.63584 1.05273
A 3.50313 3.01243 6.89445
A 5.80405 5.07669 6.22309
A 6.05633 2.15154 3.82059
A 6.67829 1.89246 6.53482
A 5.1597 4.07997 3.60055
A 3.22246 1.15021 5.22135
A 5.81949 6.48409 0.995143
A 1.04766 3.91548 0.120767
A 2.80727 6.23996 5.18486
A 4.52203 4.61088 7.1919
A 5.75732 5.55812 3.501
A 4.40715 2.92975 1.98698
A 3.97268 5.03354 3.25336
A 4.42772 2.75837 6.324
A 4.30715 1.53111 7.22774
A 2.60191 0.4205 1.27374
A 6.00895 5.47294 2.30933
A 2.2391 6.89839 4.69182
B 6.92392 3.47399 2.00762
B 2.90627 3.24553 4.81988
B 1.63041 1.25311 7.08234
B 1.80596 1.75925 2.06512
B 5.29339 7.16891 1.41579
B 3.35813 1.56926 2.73053
B 2.83215 5.54059 4.29079
B 3.16682 5.10271 4.95154
B 2.99353 1.66232 3.64951
B 4.6515 2.55723 2.87219
B 3.39869 4.63337 0.0408684
B 1.82903 3.691 5.83535
B 5.05794 5.88776 0.544616
B 5.47778 5.957 5.65598
B 2.91053 7.02165 5.79135
B 1.23136 6.18202 1.894
B 5.56676 1.57827 4.48395
B 2.66932 0.143597 4.0147
B 1.93931 2.5224 0.591745
B 1.93208 5.69024 5.78237
B 3.68288 4.23091 6.68177
B 6.31943 3.33474 2.65241
B 2.33666 3.00986 5.45369
B 4.01854 4.81677 0.632763
B 6.18981 6.97948 0.162446
B 6.75016 4.76496 4.39138
B 6.37491 5.57002 6.89654
B 0.367057 1.75308 6.4573
B 1.61757 0.400527 7.18664
B 5.86271 0.627173 3.15847
B 3.76683 0.291819 5.45106
B 0.397829 4.54542 6.9933
B 0.0499579 5.98951 2.9375
B 5.32663 2.669 6.09445
B 0.729332 0.125744 7.25026
B 2.2401 0.574151 4.65722
B 4.18832 4.06858 3.15109
B 4.378 2.86504 7.25227
B 3.81341 3.48417 6.09459
B 5.00096 6.33552 3.35042
B 7.19713 2.49215 5.07513
B 3.63826 5.86507 4.62712
B 5.72394 6.11649 6.46249
B 4.01002 6.5764 3.6737
B 5.54484 4.6603 1.05167
B 7.05805 2.80956 2.79403
B 1.2571 6.41789 5.82961
B 5.6294 4.68664 3.02362
B 5.24235 3.28218 6.71461
B 5.13919 1.328 0.298048
B 6.98403 0.135132 2.2575
B 1.04344 0.711139 3.13633
B 3.8672 0.753626 0.323757
B 1.2804 3.73397 3.03402
B 1.25369 0.00179913 0.576958
B 6.23416 0.541121 5.6703
B 6.44147 6.49682 6.77474
B 0.602901 5.46612 6.79741
B 2.4358 0.711119 7.13714
B 0.337023 2.7746 1.83602
B 3.33455 1.44325 1.22381
B 7.07859 5.49997 4.95145
B 2.26957 2.13433 6.05797
B 1.37314 1.93175 0.46668
B 6.49243 4.85423 3.40685
B 2.95414 5.04047 3.45218
B 6.32659 2.38688 5.67924
B 4.26249 3.97195 5.29748
B 1.08068 2.28225 2.03236
B 6.66244 6.83282 0.873311
B 3.39523 2.88202 2.04313
B 6.22813 2.14277 1.22164
B 4.21873 6.49199 0.55904
B 7.03603 1.00766 0.598782
B 5.16998 5.1313 5.41203
B 5.39064 0.623236 3.9932
B 3.72757 2.74956 0.448355
B 3.80194 3.43037 4.37017
B 4.63949 4.08307 0.728025
B 2.1024 6.57562 5.68997
B 0.948462 4.02901 6.55359
B 6.28616 7.18296 2.95851
B 3.17599 0.2828 7.10814
B 6.39357 1.43163 5.63951
B 4.84508 6.36286 2.55116
B 3.37223 6.35282 0.461355
B 6.97653 4.25693 1.42574
B 4.75219 0.573753 0.236118
B 6.66677 5.61332 3.15347
B 3.14875 7.07682 1.93558
B 3.85089 6.78058 5.57789
B 7.3045 7.20374 4.97284
B 5.79868 2.02535 2.03219
B 4.22702 0.720096 6.84649
B 3.4228 3.26034 1.14949
B 1.50709 4.67488 2.83908
B 6.64506 4.6177 5.69438
B 6.1325 4.07482 4.7766
B 5.61955 2.08213 0.422392
B 0.45413 1.88844 1.65612
B 7.09865 5.89925 6.69491
B 5.77626 4.73685 4.12646
B 2.71944 5.38641 5.76264
B 1.53254 6.78749 7.30955
B 0.420898 3.26164 0.621573
B 4.88689 3.62129 0.0919228
B 5.45222 4.53156 0.0734042
B 1.08222 0.525655 1.28604
B 2.12843 3.23008 3.06397
B 5.00093 0.698095 4.75468
B 5.52476 7.33104 4.55371
B 5.50471 4.15729 6.57365
B 3.92863 1.36483 1.95297
B 6.07792 0.970586 6.46516
B 3.79319 1.09705 3.27846
B 1.82124 6.76007 1.91627
B 0.0235211 0.689409 7.20399
B 1.56076 6.27432 5.00738
B 5.59684 5.54814 1.28475
B 4.53871 7.03666 3.08175
B 0.1232 4.30328 2.16332
B 6.1721 1.10784 3.87575
B 0.512263 7.11345 4.26524
B 6.75347 0.299049 0.306227
B 1.77849 6.2689 6.44313
B 6.15384 2.51107 2.79294
B 0.0762424 1.54844 7.23623
B 4.0964 6.15909 2.10405
B 1.97224 6.57256 2.80073
B 6.49629 6.47054 3.57692
B 1.23982 5.30731 1.55493
B 3.36603 5.33625 0.685954
B 0.607651 1.31272 5.50192
B 7.03442 6.36108 5.31666
B 7.18815 4.87674 2.92694
B 4.96248 4.99491 3.54967
B 6.9363 0.143977 5.68852
B 6.75682 3.49248 1.06517
B 1.33735 3.20865 6.67817
B 3.79 6.65588 1.32173
B 2.11441 6.13445 4.13938
B 3.01369 0.869189 4.26338
B 5.39085 6.56905 5.08736
B 5.6854 1.84023 6.25282
B 3.4826 3.12721 3.5874
B 6.70196 3.21011 6.59304
B 6.28027 0.561596 2.43673
B 6.02355 0.155072 0.927019
B 0.867967 5.77773 0.917184
B 7.05255 2.0582 3.33113
B 3.51188 4.98534 4.18558
B 0.680434 6.35568 3.63176
B 7.15645 6.92428 1.56556
B 6.47011 5.60201 4.05298
B 5.80508 1.55467 7.13687
B 0.921388 1.18865 3.86639
B 3.89894 4.01928 1.19729
B 0.322599 1.89654 0.652316
B 3.08272 6.64814 7.03495
B 5.46976 0.088724 5.51911
B 2.23077 6.33327 0.0623783
B 3.03264 0.126035 4.97647
B 6.21182 4.6493 6.98203
B 7.1285 0.365571 4.3119
B 1.97994 3.2803 0.020849
B 7.24194 3.41856 4.16693
B 3.01459 0.937876 0.564227
B 4.17938 5.97442 3.02582
B 2.58935 5.78588 0.725265
B 1.77426 0.0156482 1.26326
B 7.06087 6.69866 6.15097
B 0.445415 6.81538 5.56062
B 5.21191 0.659929 0.958004
B 0.448982 0.317912 2.61654
B 1.80604 4.85612 2.06223
B 0.649616 5.12622 0.327967
B 6.03273 3.93257 3.18501
B 0.964016 1.89257 7.05053
B 3.90462 2.21511 2.37351
B 5.92747 3.33091 6.11354
B 2.18909 4.17224 3.30733
B 6.94641 4.13439 7.11022
B 1.31602 6.74351 4.3227
B 0.856345 3.30141 5.93149
B 1.21944 0.749702 5.7132
B 3.06816 1.66082 6.02553
B 6.21551 1.31075 1.76801
B 5.36679 4.65677 1.97132
B 0.773316 4.84127 6.24792
B 0.960811 6.14337 2.73019
B 0.564791 3.73726 3.57182
B 0.0541632 4.86108 5.53722
B 3.69415 3.02896 5.17927
B 5.67222 0.577086 1.71105
B 4.02802 5.23118 2.17569
B 5.73471 6.20327 0.0574674
B 4.28367 0.912258 5.17861
B 6.92399 3.34914 0.165403
B 1.98096 6.9329 3.71143
B 1.87358 0.221691 3.10584
B 6.6832 4.02977 3.82734
B 1.57389 6.2572 3.46722
B 1.81167 1.01201 2.65575
B 2.80849 5.28387 1.97944
B 0.834525 2.5597 6.47768
B 4.8292 0.115189 6.83257
B 0.294052 1.05502 1.24643
B 1.61444 6.30346 0.748097
B 3.79578 2.09697 6.47832
B 6.4906 4.06494 6.29317
B 1.88452 0.812312 1.77087
B 5.45291 7.11261 3.44983
B 7.1794 1.80684 5.66861
B 5.4208 2.09013 2.95881
B 0.311358 2.93459 3.47627
B 6.59518 1.12522 7.10283
B 5.30556 2.88685 0.231
B 5.62312 6.96979 6.79016
B 7.22409 2.59159 4.15778
B 0.330066 0.318454 1.80913
B 4.6889 3.57501 2.64314
B 2.69341 2.13626 5.27869
B 2.3759 1.44324 6.58747
B 6.16749 2.85822 1.75565
B 0.365523 0.520346 3.74074
B 5.35541 1.2989 3.46083
B 3.33462 4.53598 2.56684
B 7.17641 5.53957 0.963381
B 0.515176 0.73536 4.61421
B 0.0830625 6.44542 0.928422
B 2.01271 2.46704 2.65589
B 1.81605 0.756143 6.36538
B 0.587141 4.45504 2.90447
B 0.831968 6.57547 0.423198
B 0.289816 1.24608 3.04847
B 1.98114 3.89007 1.53807
B 4.97953 5.5885 2.97029
B 2.09696 3.99996 0.589498
B 5.47633 3.96156 2.5331
B 2.19066 3.92199 2.48463
B 4.83696 6.52428 4.25953
B 3.88785 0.555998 4.55529
B 5.55048 0.307841 6.31649
B 0.259694 5.99414 0.121723
B 3.50313 5.78588 3.70096
B 4.91998 5.07219 0.62305
B 7.01296 1.6585 1.21727
B 0.447222 0.447544 5.51597
B 3.87814 3.17142 2.73785
B 2.7919 2.79008 0.12518
B 1.60504 2.77127 5.94166
B 0.503345 2.02435 3.67257
B 5.62493 6.33877 1.89853
B 0.382479 5.94878 1.6785
B 1.26765 5.59681 6.32065
B 4.41769 3.777 6.69238
512
Atoms. From timestep 500
A 7.11951 5.36228 2.20045
A 3.90671 2.25762 1.36297
A 2.69163 3.4248 3.94726
A 3.62029 7.26911 6.31876
A 2.03681 5.19201 3.6305
A 1.13455 7.04428 3.27939
A 4.39283 7.12779 2.05146
A 0.100474 2.47562 7.23341
A 3.94945 3.88628 2.17773
A 4.84099 0.601643 3.04418
A 0.206777 4.43285 3.85344
A 2.97815 2.08317 1.99125
A 1.29289 0.132207 2.28146
A 1.36789 3.17009 5.13821
A 6.53119 0.114058 6.6408
A 1.12103 2.78894 0.153092
A 3.02764 2.62302 2.89446
A 4.23349 5.65886 1.14876
A 4.79713 3.42498 4.63702
A 2.351 0.0819015 2.20889
A 3.2517 4.2711 0.844989
A 2.58184 3.45371 0.970167
A 1.39012 1.72229 6.16716
A 3.92321 6.27481 6.57463
A 6.51092 7.19232 4.88015
A 5.83518 6.45765 4.03732
A 2.92782 3.89174 7.2592
A 3.2872 1.23401 6.91011
A 5.36302 1.51964 1.27138
A 6.06246 2.61771 6.9131
A 4.92033 2.13843 3.65562
A 3.72511 1.56285 4.37152
A 2.51215 3.14475 2.02693
A 4.14128 7.10707 7.25712
A 0.579341 4.9377 4.68144
A 6.1587 5.11355 5.0957
A 0.407724 2.11978 2.67471
A 2.65115 6.70358 1.22695
A 6.513 4.46233 2.4833
A 0.0765317 4.04603 6.1264
A 4.68665 4.80956 1.55854
A 3.18567 2.4969 4.22712
A 5.07683 5.55676 2.18383
A 2.69967 6.34034 2.27854
A 3.89019 5.18988 6.52259
A 3.17101 5.71037 7.12947
A 6.19662 6.80514 5.85357
A 1.38244 7.27473 6.22598
A 5.30685 5.34824 7.0539
A 3.98337 3.81536 0.240374
A 5.42224 1.06364 5.58711
A 5.71354 2.06435 5.29284
A 2.58992 4.6254 4.30421
A 1.89282 5.61225 2.58661
A 0.276397 3.27457 5.23439
A 6.05001 0.82121 4.71638
A 2.88899 4.69778 6.47986
A 2.98159 2.25656 6.81035
A 7.07269 5.08335 0.164213
A 4.23787 5.60501 0.0975712
A 0.524307 1.7066 4.686
A 3.80881 0.575433 2.63195
A 3.82683 1.08965 5.97862
A 3.72809 6.67191 2.76878
A 1.20408 2.75912 3.14963
A 1.61804 3.35087 3.94536
A 3.86987 6.8126 4.66619
A 1.65406 2.11919 5.19461
A 3.34519 4.21232 3.68806
A 2.24874 3.74285 4.87939
A 2.60387 6.01211 3.31449
A 2.45313 1.72265 0.222597
A 3.43807 7.22152 0.705183
A 4.7895 2.61849 5.31712
A 1.25016 1.5225 1.29571
A 3.52978 1.85604 0.398925
A 0.717666 2.34985 5.56535
A 1.42969 0.284355 4.09186
A 1.85841 0.870333 0.643495
A 4.78594 5.66993 6.13839
A 3.26447 5.89307 1.50565
A 7.1087 0.960427 6.1774
A 1.23643 7.20287 5.08017
A 5.22866 4.41147 4.72146
A 1.37106 4.88426 7.05471
A 4.91298 6.38175 1.46533
A 0.406085 4.86713 1.47401
A 4.79524 2.00088 1.98592
A 6.89342 0.637059 3.16634
A 4.38293 0.0671789 0.955294
A 2.8762 1.03236 2.1132
A 4.57992 0.105582 3.97756
A 0.82604 3.84016 4.51081
A 2.90999 4.1406 1.87833
A 2.46544 1.66598 4.47411
A 1.17741 5.43212 5.38789
A 4.60582 1.16802 3.92962
A 5.45222 1.1987 2.35961
A 2.97442 3.74273 5.86543
A 5.49404 2.97699 2.23623
A 3.04784 3.69302 2.82343
A 0.754241 6.46353 6.68151
A 6.60223 3.07634 4.64187
A 2.38154 1.52376 1.26904
A 1.98987 1.10501 3.69505
A 0.913278 4.19611 5.49734
A 6.73576 6.08315 0.376021
A 6.7992 0.523459 1.38982
A 1.60643 4.59188 4.80593
A 3.668 0.543313 1.54798
A 5.11633 1.05215 6.64157
A 5.41154 5.61018 4.55091
A 2.83707 0.746051 3.13305
A 2.57891 4.895 0.154148
A 5.46722 2.58032 4.40878
A 1.39297 5.93072 7.3088
A 3.29629 2.72847 5.88928
A 0.554323 3.42831 2.58231
A 7.20186 1.10465 2.21566
A 4.2947 4.2608 4.17251
A 6.25881 2.86112 0.625187
A 5.7412 0.501639 7.27734
A 4.30445 5.05375 4.95586
A 4.7154 1.76773 5.96624
A 7.28368 2.74006 6.15054
A 1.2151 4.38915 1.03206
A 6.34542 1.49611 2.81063
A 4.64019 6.07999 5.13185
A 1.85559 2.32828 6.90488
A 6.00676 5.30709 0.516179
A 6.31442 6.15261 4.95358
A 2.21338 2.726 4.59083
A 2.43584 3.13942 6.538
A 1.33373 4.395 3.7922
A 7.20665 1.30682 3.95019
A 4.50807 3.15635 3.62693
A 3.36135 4.11507 4.81261
A 5.02807 3.84288 1.7381
A 1.4486 2.01138 4.12641
A 6.51644 1.80691 4.63544
A 1.43836 1.12242 4.78602
A 4.648 4.5513 6.052
A 7.12976 6.5298 4.29081
A 2.81943 7.02371 3.09853
A 3.61299 4.89316 1.64698
A 2.22569 1.34347 5.54603
A 6.31217 7.05934 1.79711
A 3.55173 0.0948638 3.64339
A 5.9995 3.65861 7.21211
A 0.193034 4.191 0.596606
A 2.83451 0.697779 6.1285
A 1.71221 5.25556 0.66784
A 2.08742 5.83334 1.49968
A 5.58237 3.62832 0.852428
A 5.69868 4.20334 5.65207
A 3.7404 5.77553 5.62482
A 1.91925 2.44522 1.48303
A 0.841089 0.972364 0.360858
A 4.5686 3.22153 0.883917
A 3.39096 5.62909 2.69616
A 4.61588 0.401814 5.92814
A 3.87186 2.23652 3.42686
A 2.58125 4.72117 2.80913
A 4.76816 4.49369 2.60125
A 4.91784 3.54117 5.82568
A 5.72173 3.18444 5.24584
A 5.76934 3.58302 4.18988
A 7.076 0.916997 5.06634
A 6.71297 6.07293 1.47848
A 6.67089 1.90213 0.312108
A 2.52019 4.89554 1.2181
A 4.47552 5.68269 4.04227
A 3.84056 1.99833 5.34476
A 6.60028 5.81086 5.93242
A 1.51111 3.35805 0.984521
A 2.55468 4.58026 5.42487
A 2.21777 5.43571 4.92889
A 4.23916 2.50372 4.42655
A 0.71141 2.76128 4.33834
A 3.62375 4.61714 5.6952
A 6.15079 1.09805 0.736495
A 4.45187 1.54546 2.86823
A 5.26164 7.03663 0.364846
A 0.397469 3.43853 6.91692
A 0.516842 3.6378 1.49142
A 2.05868 0.307672 5.51543
A 5.10684 6.73297 5.95851
A 4.79639 1.68761 4.847
A 6.44252 4.2763 0.656602
A 2.03006 4.11567 6.78106
A 2.39784 7.27126 0.342474
A 5.39103 2.62151 1.25541
A 1.14823 4.25106 2.09829
A 1.44851 3.2181 2.07844
A 6.26717 0.0396234 3.82434
A 7.20633 4.169 4.89534
A 2.40609 7.22695 6.60201
A 7.38877 6.98791 3.31504
A 6.57257 3.04958 3.56201
A 5.09058 2.1646 6.92404
A 7.29763 6.8754 7.29892
A 4.71951 0.730906 1.79673
A 2.91627 2.45743 1.01323
A 7.03293 4.98341 6.45321
A 0.343514 5.82474 5.91344
A 0.269827 0.135243 0.785537
A 0.885446 2.52734 1.16317
A 4.89982 6.35985 6.97715
A 1.32524 5.6089 4.3358
A 4.65301 2.18714 0.577987
A 0.658615 6.2584 4.86938
A 5.82087 6.3883 2.89487
A 6.86403 6.3904 2.48362
A 6.64495 3.5223 5.62629
A 5.46804 7.30934 2.39289
A 6.11916 3.85698 1.71473
A 2.44801 1.69195 2.85814
A 4.32545 1.23429 0.940953
A 0.972113 5.30352 3.39877
A 0.822262 0.934793 6.611
A 0.556832 6.76725 2.37738
A 0.938213 1.14081 2.22754
A 5.52611 3.02365 3.28913
A 3.03732 6.61842 4.07131
A 4.72322 7.24959 5.02193
A 7.10292 3.84515 3.11421
A 0.818378 5.23837 2.38999
A 2.20684 5.50248 6.69945
A 1.71525 4.78083 6.01583
A 0.251904 0.0641381 6.42135
A 2.87326 6.32805 6.24801
A 0.0939443 5.52521 3.92712
A 1.00116 6.84787 1.38703
A 2.23921 2.43071 3.57717
A 6.8366 2.12163 2.06631
A 1.36486 1.71019 3.04094
A 6.38453 5.02699 1.48744
A 7.15339 2.51356 1.08175
A 3.56741 3.18457 6.81068
A 5.86964 5.07369 6.19294
A 6.06724 2.10614 3.65897
A 6.70526 1.86443 6.54652
A 5.11328 4.03004 3.49462
A 3.16385 1.0451 5.1192
A 5.88556 6.44683 0.964354
A 1.16535 3.90163 0.112117
A 2.88795 6.23543 5.1069
A 4.56535 4.59121 7.15085
A 5.81491 5.50603 3.53353
A 4.44548 2.98558 1.90942
A 4.0919 4.96529 3.3531
A 4.37898 2.75795 6.28096
A 4.30584 1.48483 7.15033
A 2.64847 0.454867 1.25781
A 6.09182 5.45284 2.45682
A 2.2392 7.01207 4.68283
B 7.02427 3.51565 2.04663
B 3.07046 3.14862 4.9795
B 1.64123 1.33321 7.08722
B 1.84124 1.64958 2.09865
B 5.35284 7.23355 1.40774
B 3.43191 1.56751 2.7781
B 2.90567 5.61721 4.23711
B 3.20007 5.19328 4.99658
B 3.03483 1.68649 3.63323
B 4.67746 2.58086 2.80322
B 3.5494 4.74204 7.33357
B 1.77239 3.69325 5.89896
B 5.12957 5.95664 0.552093
B 5.59855 5.89365 5.568
B 2.99985 7.12938 5.53895
B 1.21033 6.03827 1.93443
B 5.538 1.51699 4.2459
B 2.48929 0.20996 3.90415
B 2.05626 2.60074 0.526052
B 2.00096 5.81686 5.79729
B 3.72014 4.18906 6.63769
B 6.32568 3.40571 2.61531
B 2.33799 3.00261 5.53989
B 4.10799 4.77446 0.707658
B 6.26731 6.94962 0.154698
B 6.77239 4.86931 4.3538
B 6.34632 5.5701 6.92422
B 0.368951 1.83015 6.36917
B 1.56663 0.431712 7.12611
B 5.85359 0.595579 3.08284
B 3.71197 0.233747 5.36286
B 0.447016 4.49966 6.99973
B 0.241602 5.91128 2.98692
B 5.40512 2.62396 6.07312
B 0.767639 0.0491718 7.2189
B 2.31012 0.695526 4.63937
B 4.11303 3.94554 3.15871
B 4.46605 2.9484 7.25478
B 3.94333 3.64954 5.94945
B 5.01452 6.28603 3.44392
B 7.23979 2.41868 4.98336
B 3.69896 5.85424 4.61266
B 5.72062 6.05762 6.43908
B 4.15324 6.57083 3.72278
B 5.57034 4.58528 1.1341
B 7.06311 2.87274 2.68058
B 1.25601 6.35552 5.78988
B 5.67479 4.70572 3.01116
B 5.19752 3.16782 6.7426
B 5.17904 1.33742 0.290698
B 7.02078 0.0631151 2.35354
B 1.17953 0.722702 3.14858
B 3.81051 0.693944 0.299535
B 1.4115 3.75328 2.99708
B 1.30609 0.0444203 0.586597
B 6.27575 0.514357 5.66582
B 6.47907 6.45087 6.77682
B 0.557629 5.4004 6.88526
B 2.39679 0.796416 7.11323
B 0.275427 2.75917 1.92361
B 3.34737 1.4214 1.26081
B 7.14994 5.59591 4.93311
B 2.33435 2.23907 6.00873
B 1.491 1.89839 0.451313
B 6.60786 4.73019 3.45077
B 3.08047 5.13643 3.51007
B 6.31536 2.58194 5.91238
B 4.30464 4.06308 5.19923
B 1.15801 2.23908 2.09026
B 6.78525 6.94036 0.898762
B 3.46352 2.97914 2.01677
B 6.23181 2.05622 1.20734
B 4.40543 6.47107 0.589468
B 7.16398 1.04613 0.568293
B 5.19569 5.10412 5.42109
B 5.45099 0.647484 3.88406
B 3.71852 2.83057 0.435928
B 3.79572 3.38403 4.35725
B 4.81049 4.21733 0.763855
B 2.13162 6.69915 5.67982
B 1.07532 4.08805 6.46592
B 6.39607 7.1826 2.85729
B 3.13795 0.289427 7.15138
B 6.36458 1.41372 5.63018
B 4.9098 6.43656 2.51387
B 3.50983 6.2216 0.580891
B 7.00168 4.25818 1.52467
B 4.6938 0.588239 0.137443
B 6.75373 5.57996 3.17408
B 3.33731 7.04893 1.90495
B 4.11384 6.73601 5.66096
B 0.201051 7.21065 4.92893
B 5.83525 2.07948 2.01254
B 4.11521 0.605868 6.77142
B 3.56647 3.31519 1.18704
B 1.59204 4.67122 2.87156
B 6.65559 4.51667 5.65032
B 6.23583 4.14557 4.83854
B 5.67851 2.06646 0.464673
B 0.387153 1.85325 1.69707
B 7.18894 5.923 6.81366
B 5.92202 4.59248 4.02158
B 2.82561 5.43968 5.8137
B 1.60687 6.88141 7.19167
B 0.37588 3.2133 0.609435
B 4.99041 3.70971 0.0672938
B 5.49225 4.45989 0.218023
B 1.08918 0.53189 1.30934
B 2.15935 3.23431 3.00789
B 5.06379 0.735515 4.7051
B 5.56057 7.29714 4.44166
B 5.36581 4.13774 6.63074
B 3.91792 1.42319 1.9904
B 6.1005 0.997566 6.40628
B 3.72855 1.08487 3.49401
B 1.83809 6.67227 1.92045
B 0.0433711 0.563344 7.19796
B 1.68617 6.25781 5.01844
B 5.47809 5.52309 1.30689
B 4.58691 7.03658 3.07658
B 0.153534 4.33969 2.29596
B 6.23575 1.10958 3.7693
B 0.634259 7.08864 4.1662
B 6.6771 0.320526 0.357618
B 1.82733 6.38884 6.48706
B 6.23668 2.50969 2.7516
B 0.0945202 1.45948 7.14416
B 4.14429 6.08668 2.07546
B 1.9085 6.64239 2.81896
B 6.61918 6.41086 3.46165
B 1.3256 5.21627 1.56365
B 3.36077 5.29494 0.708049
B 0.554701 1.34294 5.61958
B 7.12958 6.47888 5.33351
B 7.39706 4.95173 3.03412
B 5.05928 4.91461 3.89048
B 6.98436 0.00275435 5.68085
B 6.90068 3.46946 1.11472
B 1.45337 3.289 6.70547
B 3.9174 6.62092 1.33968
B 2.17341 6.12369 4.23731
B 3.04175 0.890473 4.10836
B 5.47719 6.61114 5.01956
B 5.74312 1.80791 6.24305
B 3.53166 3.19352 3.54164
B 6.73827 3.36622 6.63575
B 6.3029 0.599184 2.30991
B 5.96089 0.118403 0.877599
B 0.960103 5.89257 0.982306
B 6.97224 2.12382 3.25107
B 3.62145 5.0234 4.22503
B 0.715037 6.26253 3.73001
B 7.29668 6.91148 1.62704
B 6.52061 5.71038 4.13362
B 5.88982 1.54832 7.10316
B 0.938498 1.19371 3.89523
B 4.1076 4.03751 1.2513
B 0.379179 1.79401 0.666228
B 3.1834 6.72272 7.16468
B 5.53389 0.118822 5.33122
B 2.34855 6.34436 7.25873
B 3.03697 0.13629 4.66996
B 6.20674 4.69689 7.08079
B 7.11111 0.318513 4.21811
B 2.02155 3.37245 0.0938208
B 7.34857 3.43029 4.10368
B 2.97558 0.941956 0.495581
B 4.29545 5.92245 3.01863
B 2.61062 5.83359 0.644675
B 1.89081 7.32489 1.31885
B 7.15186 6.61591 6.23113
B 0.53133 6.83216 5.68407
B 5.21317 0.628722 0.862284
B 0.437332 0.385705 2.7396
B 1.97208 4.78895 2.02856
B 0.711811 5.10971 0.463689
B 6.11068 3.95367 3.31891
B 0.903722 1.8539 7.11374
B 3.89585 2.26296 2.39912
B 5.88663 3.38535 6.23385
B 2.18456 4.07472 3.40925
B 6.95115 4.16179 7.07118
B 1.38934 6.61961 4.24392
B 0.860589 3.31581 6.01826
B 1.25932 0.816741 5.70275
B 3.06428 1.70537 5.95791
B 6.2763 1.32789 1.77228
B 5.59206 4.67603 2.04809
B 0.72605 4.88874 6.18548
B 1.0969 6.12732 2.82932
B 0.711794 3.60085 3.5519
B 0.104202 4.93175 5.53298
B 3.95954 3.14061 5.21386
B 5.74945 0.62256 1.5985
B 4.19108 5.22542 2.37047
B 5.80819 6.18224 0.00429902
B 4.27814 0.926624 5.133
B 6.94132 3.39667 0.194555
B 2.07094 6.83792 3.70447
B 1.90987 0.206837 3.15941
B 6.65823 4.0014 4.03943
B 1.6193 6.09277 3.52125
B 1.9037 0.911482 2.62163
B 2.72459 5.31187 2.06791
B 0.877597 2.57061 6.54936
B 4.8816 0.0429384 6.79064
B 0.363502 1.04067 1.29511
B 1.76522 6.50824 0.742679
B 3.82448 1.97207 6.41216
B 6.34741 4.15182 6.39647
B 1.83772 0.814373 1.72587
B 5.46123 7.16436 3.42047
B 7.14338 1.842 5.64099
B 5.43596 2.09752 2.813
B 0.231752 2.84341 3.41868
B 6.62194 1.02864 7.13668
B 5.32574 2.88033 0.255354
B 5.72344 6.91065 6.778
B 7.14445 2.38111 4.09122
B 0.386812 0.301269 1.82513
B 4.77449 3.49439 2.70479
B 2.81302 2.20763 5.21252
B 2.36711 1.51548 6.54913
B 6.35072 2.88642 1.67299
B 0.454893 0.480847 3.64772
B 5.44301 1.36485 3.34058
B 3.5272 4.61681 2.64544
B 7.38445 5.57833 0.954727
B 0.579471 0.618662 4.57919
B 0.196605 6.4594 0.907609
B 1.95609 2.46881 2.53033
B 1.85368 0.800243 6.36451
B 0.727555 4.35456 2.99938
B 0.899623 6.66113 0.401558
B 0.409844 1.23387 3.1094
B 1.9872 4.02138 1.53871
B 4.96514 5.34861 3.1148
B 2.05291 4.1772 0.55191
B 5.58349 3.91266 2.58146
B 2.08231 3.95864 2.44565
B 4.88981 6.55357 4.30802
B 3.83199 0.548025 4.47058
B 5.58427 0.2696 6.22615
B 0.394124 5.95032 0.206546
B 3.58236 5.86987 3.65655
B 4.96918 5.09259 0.63665
B 6.97295 1.55277 1.25929
B 0.46515 0.435953 5.5424
B 3.94068 3.0976 2.77539
B 2.83097 2.93308 0.149451
B 1.58762 2.73982 6.00451
B 0.547475 2.00449 3.65691
B 5.77913 6.23155 1.92245
B 0.348747 6.02912 1.70925
B 1.26578 5.63774 6.35795
B 4.46834 3.70218 6.68596
512
Atoms. From timestep 1000
A 7.17833 5.36051 2.20534
A 3.93335 2.25939 1.36511
A 2.73605 3.43815 3.97367
A 3.73451 7.27936 6.31653
A 2.10423 5.18859 3.6295
A 1.22361 7.0474 3.28095
A 4.48707 7.13331 2.04525
A 0.123532 2.47823 7.23571
A 3.9922 3.88488 2.17302
A 4.84989 0.603104 3.04572
A 0.259541 4.43774 3.85471
A 3.00287 2.07646 1.99381
A 1.29407 0.134546 2.28326
A 1.40093 3.16831 5.14112
A 6.53525 0.112072 6.63866
A 1.15086 2.78964 0.155829
A 3.05438 2.61872 2.89164
A 4.31016 5.66271 1.14596
A 4.83574 3.42092 4.63233
A 2.35031 0.0814113 2.21505
A 3.31243 4.2764 0.843033
A 2.63072 3.46687 0.961615
A 1.40846 1.71759 6.16662
A 4.00253 6.27602 6.5741
A 6.59831 7.19302 4.88263
A 5.91204 6.45902 4.03138
A 2.97506 3.88846 7.26649
A 3.30596 1.23207 6.91503
A 5.38181 1.52152 1.2707
A 6.09253 2.61688 6.91291
A 4.94635 2.14162 3.65677
A 3.73959 1.55708 4.37346
A 2.54805 3.14373 2.01553
A 4.23824 7.11482 7.25437
A 0.642144 4.93753 4.68616
A 6.22771 5.11105 5.09493
A 0.434303 2.12236 2.67407
A 2.74291 6.6951 1.22116
A 6.56355 4.45384 2.48332
A 0.130159 4.04284 6.1251
A 4.75106 4.81185 1.55728
A 3.21126 2.49355 4.2298
A 5.14403 5.55952 2.182
A 2.7784 6.34348 2.27777
A 3.95127 5.19178 6.51955
A 3.24384 5.71133 7.13451
A 6.28181 6.80537 5.85173
A 1.47808 7.27216 6.22735
A 5.37954 5.34954 7.0531
A 4.03605 3.82181 0.234529
A 5.44033 1.0694 5.58768
A 5.73742 2.06524 5.29251
A 2.64359 4.61134 4.30426
A 1.96423 5.61299 2.58978
A 0.315321 3.28148 5.23426
A 6.05869 0.825654 4.71617
A 2.94389 4.68845 6.48243
A 3.00436 2.25073 6.80847
A 7.13786 5.08147 0.166918
A 4.31082 5.61119 0.092931
A 0.530618 1.71397 4.68192
A 3.81851 0.575612 2.63181
A 3.83974 1.09057 5.97773
A 3.81606 6.68045 2.75613
A 1.24016 2.75844 3.14826
A 1.66197 3.35017 3.9405
A 3.96053 6.8072 4.6579
A 1.68018 2.1186 5.19271
A 3.39811 4.2072 3.6849
A 2.28582 3.74136 4.90256
A 2.67633 6.00915 3.31641
A 2.47437 1.71726 0.222142
A 3.53525 7.2225 0.703759
A 4.81821 2.6215 5.31658
A 1.26771 1.52058 1.29518
A 3.54749 1.8698 0.396518
A 0.743653 2.34802 5.56238
A 1.4294 0.286655 4.09339
A 1.87163 0.866964 0.645259
A 4.85878 5.67152 6.13981
A 3.34926 5.89009 1.51823
A 7.12307 0.958808 6.17552
A 1.32901 7.20481 5.08491
A 5.27652 4.40606 4.72524
A 1.43888 4.88135 7.0538
A 4.99717 6.38506 1.45991
A 0.458258 4.86303 1.47988
A 4.81873 1.9993 1.9881
A 6.89891 0.634376 3.16626
A 4.38801 0.0690863 0.953502
A 2.88712 1.02816 2.11553
A 4.58228 0.108568 3.97558
A 0.872805 3.84216 4.50876
A 2.96257 4.13543 1.87246
A 2.48294 1.66582 4.47458
A 1.25101 5.43503 5.38483
A 4.62139 1.17382 3.93106
A 5.46767 1.19759 2.36061
A 3.01491 3.73888 5.87197
A 5.53142 2.97528 2.23913
A 3.09095 3.69001 2.81892
A 0.84122 6.45927 6.67986
A 6.65119 3.10899 4.64242
A 2.40136 1.51876 1.26845
A 2.00086 1.10133 3.69856
A 0.967964 4.19222 5.49605
A 6.81911 6.08366 0.372366
A 6.80624 0.519167 1.38918
A 1.66207 4.59327 4.80595
A 3.6767 0.549514 1.54455
A 5.13162 1.05732 6.6422
A 5.48797 5.60967 4.54483
A 2.84561 0.73939 3.13448
A 2.64376 4.89784 0.157069
A 5.50157 2.58242 4.40665
A 1.48173 5.92918 7.30712
A 3.32873 2.72456 5.89007
A 0.594579 3.42774 2.58262
A 7.21345 1.10053 2.21349
A 4.34367 4.25826 4.17396
A 6.29578 2.8575 0.622851