ITEM: TIMESTEP
0
ITEM: NUMBER OF ATOMS
8
ITEM: BOX BOUNDS pp pp pp
-1 1
-1 1
-1 1
ITEM: ATOMS id type xs ys zs
1 1 0 0 0
2 2 0 0 0.5
3 1 0 0.5 0
4 2 0 0.5 0.5
5 1 0.5 0 0
6 2 0.5 0 0.5
7 1 0.5 0.5 0
8 2 0.5 0.5 0.5
ITEM: TIMESTEP
100
ITEM: NUMBER OF ATOMS
8
ITEM: BOX BOUNDS pp pp pp
-1 1
-1 1
-1 1
ITEM: ATOMS id type xs ys zs
1 1 0.953324 0.856761 0.796532
2 2 0.0726386 0.1474 0.348113
3 1 0.995076 0.357652 0.0175013
4 2 0.0079301 0.670143 0.481609
5 1 0.433984 0.127982 0.208048
6 2 0.56158 0.816728 0.604797
7 1 0.564432 0.648273 0.956291
8 2 0.411035 0.375061 0.58711
