10
Minimum energy structure for Morse potential with rho greater than 2.28. This structure minimised at rho = 6: http://doye.chem.ox.ac.uk/jon/structures/Morse/points/10B
A    0.825125004996040   0.047572162742019  -0.211393629109228
A   -0.314755662396986  -0.039416470443021   0.934838993425833
A    0.145608804056574   0.753242192476757  -0.417968318591967
A    0.546120322173537  -0.432819993798915   0.608477587097170
A    0.188670185392511  -0.113027944433695  -0.949595966203258
A    0.392005859671109   0.542257175115706   0.529216654881307
A   -0.155428746143418  -0.092586134871168  -0.029054639761019
A   -0.289747011158516  -0.936769920562559   0.456260325606297
A    0.399901390062536  -0.855658690753228  -0.287185865763455
A   -0.554011425477634   0.735222394598038   0.320349370266317