11
Minimum energy structure for Morse potential up to rho = 3.4. This structure minimised at rho = 3: http://doye.chem.ox.ac.uk/jon/structures/Morse/points/11A
A   -0.374168409198572  -0.528095556867333  -0.686115586087789
A    0.911824867405220   0.079076102458428  -0.083260390165423
A   -0.442663825147075   0.120935245972162   0.713862240011149
A   -0.725329402006926   0.234051602896330  -0.226505577218255
A    0.407092630970597  -0.592537371650112   0.644804756468608
A    0.232438737537302   0.204452718663107  -0.790156394453365
A    0.484288080798571   0.357651507867331   0.726079918887789
A    0.055059835800000  -0.085222024500001   0.019982166400000
A   -0.481360436595446  -0.745352165093701   0.239483210207638
A    0.476407702948782  -0.774951049326923  -0.324167607027472
A    0.062068411287549   0.792548720080701  -0.014202906622882
