11
Minimum energy structure for Morse potential with rho greater than 15.29 and less than 20.6. This structure minimised at rho = 6: http://doye.chem.ox.ac.uk/jon/structures/Morse/points/11E
A    0.037353113844957  -0.002915979079833   0.062373042953376
A   -0.749667922690153  -0.511403885422893   0.390415603087206
A   -0.738530608636124   0.498343292204577   0.413288054262785
A   -0.243873126981924  -0.808029715938244  -0.422099225068181
A   -0.839237472878795   0.012621026580244  -0.441305276622223
A   -0.251248127115728   0.812055818401972  -0.413982630352555
A    0.703523561926015   0.506293395517655  -0.464833430132392
A    0.707311526318158  -0.499443889270367  -0.474060914382371
A   -0.001247427713734   0.003850832738505  -0.950918339831873
A   -1.232477895437611  -0.895560695442347  -0.401407304394786
A   -0.764958511454535  -0.578786080775200  -1.233685172810839