11
Minimum energy structure for Morse potential with rho greater than 20.6. This structure minimised at rho = 6: http://doye.chem.ox.ac.uk/jon/structures/Morse/points/11F
A    1.000485758125359   0.005154337679752   0.000000000000000
A    0.504664261235891   0.863961758304830   0.000000000000000
A    0.502019631755836   0.289903100267276   0.808364009753150
A    1.997630844481244   0.002440518383917   0.000000000000000
A    1.496985797956805   0.864334110098416   0.000000000000000
A    1.000903485210124   1.728861937891067   0.000000000000000
A    1.496994142790499   0.291204936753491   0.811778860406455
A    1.000651151948954   1.150915631800241   0.811778860406455
A    0.502019631755836   0.289903100267276  -0.808364009753150
A    1.496994142790499   0.291204936753491  -0.811778860406455
A    1.000651151948953   1.150915631800241  -0.811778860406455