12
Minimum energy structure for Morse potential from rho = 13.03 to 17.08. This structure minimised at rho = 6: http://doye.chem.ox.ac.uk/jon/structures/Morse/points/12D
A    0.037496502025558  -0.002691069564060   0.066090631272756
A   -0.759748344459782  -0.502009855744360   0.396451546096901
A   -0.742552898254335   0.504446013672175   0.403511166758331
A   -0.243208048859316  -0.813513118252458  -0.397405349061944
A   -0.835882460643504   0.006234839340592  -0.446543492891941
A   -0.246519216392474   0.809889389620263  -0.417435767729569
A    0.709110690494219   0.496725938548464  -0.462146758253266
A    0.703176779643128  -0.509789820707299  -0.475921872368452
A    0.001710214160115   0.001780447549910  -0.946017849413123
A   -1.229052587152793  -0.900820389011472  -0.399791271793860
A   -0.736793012108019  -0.606278614094621  -1.226969966093133
A    0.222611001595762  -0.908540464135183  -1.265449196805458