12
Minimum energy structure for Morse potential with rho greater than 17.08. This structure minimised at rho = 6: http://doye.chem.ox.ac.uk/jon/structures/Morse/points/12E
A    0.003012243604519   0.001788850466308   0.000000000000000
A    1.000000000000000   0.004959595663222   0.000000000000000
A    0.504252067691714   0.863620202168389   0.000000000000000
A    0.503441289742061   0.290711694964126   0.811408572960277
A    1.996987756395482   0.001788850466308   0.000000000000000
A    1.495747932308286   0.863620202168389   0.000000000000000
A    1.000000000000000   1.728622299067385   0.000000000000000
A    1.496558710257939   0.290711694964126   0.811408572960277
A    1.000000000000000   1.150776610071749   0.811408572960278
A    0.503441289742061   0.290711694964126  -0.811408572960277
A    1.496558710257939   0.290711694964126  -0.811408572960277
A    1.000000000000000   1.150776610071749  -0.811408572960278