13
Minimum energy structure for Morse potential up to rho = 14.76. This structure minimised at rho = 6: http://doye.chem.ox.ac.uk/jon/structures/Morse/points/13A
A   -0.000000006923077  -0.000000006153846  -0.000000004615385
A   -0.000001075920835  -0.000000001839413   0.964702745612598
A    0.266636804701410  -0.820625176140866   0.431428480036567
A   -0.698065948330167  -0.507174260210127   0.431427409636962
A   -0.698065957402787   0.507174239273984   0.431427405100488
A    0.266636790021603   0.820625172461881   0.431428472696399
A    0.862855886042900   0.000000003493263   0.431429137043432
A   -0.266636803867756  -0.820625184769574  -0.431428481927168
A   -0.862855899889054  -0.000000015800955  -0.431429146274201
A   -0.266636818547564   0.820625163833174  -0.431428489267336
A    0.698065934484013   0.507174247902435  -0.431427418867731
A    0.698065943556633  -0.507174251581676  -0.431427414331258
A    0.000001062074681  -0.000000010468279  -0.964702754843368