13
Minimum energy structure for Morse potential with rho greater than 14.76. This structure minimised at rho = 14: http://doye.chem.ox.ac.uk/jon/structures/Morse/points/13B
A    0.000000000000498  -0.000000000000249  -0.000000000000023
A   -0.000000000034271   0.000000000008474   1.009007525892903
A    0.858127059201338   0.000000000004676   0.500980496522800
A    0.265175844615190  -0.816127331474308   0.500980496509422
A   -0.694239374256858  -0.504394429997908   0.500980496473667
A   -0.694239374257555   0.504394430005113   0.500980496464946
A    0.265175844614062   0.816127331482840   0.500980496495312
A    0.265175844648587   0.816127331474178  -0.500980496491193
A   -0.694239374223030   0.504394429996450  -0.500980496521559
A   -0.694239374222331  -0.504394430006571  -0.500980496512838
A    0.265175844649718  -0.816127331482970  -0.500980496477082
A    0.858127059235865  -0.000000000003985  -0.500980496463705
A    0.000000000035268  -0.000000000008971  -1.009007525892950