13
Minimum energy structure for 13 particles with the KA potential.
A         4.6281762765       -4.8354937846        3.4637998355
A         4.8180430586       -3.9985360819        2.7984837271
A         4.2840905213       -4.1387594450        4.2488128697
A         3.8409009855       -4.4338135502        2.5618516771
A         3.3413741657       -3.6364849763        3.1230898390
A         4.3210078882       -3.3275662496        3.5120260646
A         3.3877561104       -4.5313895654        3.7364363702
B         4.0831457144       -4.1570723892        3.3550619057
B         4.0484878935       -4.9860280220        4.1219874358
B         4.9465134428       -3.9913015769        3.6774092824
B         3.5898618370       -3.6586977867        3.9756254549
B         4.0786358916       -3.5380354822        2.6441918282
B         3.8176366484       -5.0795967053        3.1760283049