7
Minimum energy structure for 7 particles with the KA potential.
A       -3.4529224002       -3.3795392128        2.5658085592
A       -4.5557767680       -3.3204045053        2.7533606545
A       -4.1879299580       -4.3326092875        2.4450425605
A       -3.4513331407       -4.0330985571        1.6559721341
B       -4.1229992637       -3.5597562379        2.0084787276
B       -3.3025489967       -4.2561470648        2.5108668151
B       -3.9437725969       -3.8423688666        3.1479791511