8
Minimum energy structure for Morse potential with rho greater than 5.28. This structure minimised at rho = 6: http://doye.chem.ox.ac.uk/jon/structures/Morse/points/8B
A   -0.309527001339098   0.198701022740889   0.072530970771979
A   -0.195419245319042  -0.131553696091679  -0.855624295665995
A   -0.597732467783071  -0.497826467793748   0.721132584155445
A    0.363257464757155  -0.236716471716775   0.664249985853501
A   -0.064513687760534  -0.754452851641187  -0.081822173118729
A    0.496242828889996   0.705572922485505   0.350697855669374
A    0.611138642775006  -0.054948527351906  -0.279325884727439
A    0.156406406956218   0.771106422310765  -0.591839042938619