9
Minimum energy structure for Morse potential up to rho = 3.42 This structure minimised at rho = 6: http://doye.chem.ox.ac.uk/jon/structures/Morse/points/9A
A  -0.551932798281604   0.236841184586831  -0.119517645855907
A   0.045274323125989  -0.310626935137388  -0.687618539536337
A  -0.517893739642762  -0.049710884882955   0.834327628926356
A   0.375599919103854  -0.455602695038863   0.661086541182040
A  -0.393085820399669  -0.714301154817702   0.102320586161632
A   0.216752941221919   0.495539644365669   0.439248309164501
A   0.813960062629511  -0.051928475358549  -0.128852584515929
A   0.247002657772725   0.654661902933935  -0.544040364487146
A   0.524175395570037  -1.004990233750981  -0.156953931139210