9
Minimum energy structure for Morse potential with rho greater than 3.42. This structure minimised at rho = 6: http://doye.chem.ox.ac.uk/jon/structures/Morse/points/9B
A   -0.360992740419039   0.245221170650534   0.019940295364670
A   -0.158688741085414  -0.152830899005342  -0.862646221408312
A   -0.678716869125317  -0.367478246310150   0.728447261023474
A    0.285551381476743  -0.137636954662848   0.701742749809020
A   -0.100956959765390  -0.705684519812538  -0.023352864037224
A    0.398500280195598   0.787097803461777   0.341272838809939
A    0.588930132919941  -0.012414027835070  -0.226483875064096
A    0.153127292509711   0.779127686880150  -0.635006833464876
A   -0.366900835530192   0.564480339575341   0.956086648966909